Okay, so I need to figure out the correct answer to this question about Substance X. Let's break down the information given step by step. 

First, the question says that Substance X incorporates a heavier isotope of one of its constituent elements. That probably means that X has a particular element with a higher mass number than the standard one. For example, maybe Chlorine-37 instead of Chlorine-35 or something like that. But I need to figure out which element that is.

Next, when X reacts with liquid Y, it produces gas W. The molecule of W has the same number of neutrons and protons. So if W is a molecule with the same number of neutrons and protons, then the number of protons (which is the atomic number) equals the number of neutrons. Let's denote the number of protons as Z. Then the number of neutrons is also Z. So the mass number A would be Z (protons) + Z (neutrons) = 2Z. Therefore, the molecular formula of W must be something like H2 (if Z=1, since Hydrogen has 1 proton and 0 neutrons, but wait, that's not matching. Wait, no, if the number of neutrons equals protons, then for hydrogen, which has 1 proton, if it has 1 neutron, that would be deuterium. But molecular weight of deuterium is 2, but H has 1 proton and 1 neutron. Wait, but if W is a gas, maybe it's something like He-4? No, He-4 has 2 protons and 2 neutrons, so Z=2. Then the molecule would be He, but He is a noble gas and doesn't form molecules. Hmm. Wait, maybe W is a diatomic molecule. Let's think again. If W's molecule has the same number of neutrons and protons, then the total number of nucleons (neutrons + protons) is 2Z. So for a molecule like O2, which is O with 8 protons and 8 neutrons (isotopic oxygen, maybe). Wait, Oxygen-16 has 8 protons and 8 neutrons. So if W is O2, then each O atom has 8 protons and 8 neutrons. But wait, Oxygen-16 is the most common isotope. If the question is about the molecule's protons and neutrons, then each O atom would have 8 protons and 8 neutrons, making the total for the molecule 16 protons and 16 neutrons. But the question says the molecule has the same number of neutrons and protons. So for a molecule like O2, the total protons would be 16 (each O has 8), and neutrons would be 16 as well (each O has 8 neutrons). So yes, that works. So W could be O2. But then the gas W is O2, which is a diatomic gas. Alternatively, maybe it's something else. Let's see. Another possibility is Nitrogen. Nitrogen-14 has 7 protons and 7 neutrons. So if W is N2, then each N has 7 protons and 7 neutrons. So the molecule would have 14 protons and 14 neutrons. That fits. So W could be N2. Alternatively, Carbon-12? No, because Carbon-12 has 6 protons and 6 neutrons. So C2 would have 12 protons and 12 neutrons. So W could be C2. But C2 is not a common gas. Alternatively, maybe it's H2, but H-2 (deuterium) has 1 proton and 1 neutron. So H2 would have 2 protons and 2 neutrons. That's possible. But H2 is a gas at high temperatures, but not at room temperature. So W could be H2 if it's formed under high-temperature conditions. But the question says it's released as a gas, so maybe it's H2. But I need to think which element is more likely here. Let's consider other possibilities. Maybe W is a noble gas, but noble gases don't form diatomic molecules under normal conditions. So maybe it's H2, N2, O2, or F2. But F2 is not a common gas at room temperature. Alternatively, maybe it's Cl2, but Cl-35 has 17 protons and 18 neutrons, so Cl2 would have 34 protons and 36 neutrons. That doesn't match. So unless the isotopic composition is considered. Wait, but the molecule of W has the same number of neutrons and protons. So the total for the molecule must be even. For example, O2 has 16 protons and 16 neutrons. So the number of protons in the molecule equals the number of neutrons. So each atom in the molecule must have the same number of protons and neutrons. For example, each O atom has 8 protons and 8 neutrons (O-16). So the molecule O2 would have 16 protons and 16 neutrons. So that works. Similarly, N2 would have 14 protons and 14 neutrons. So each N atom has 7 protons and 7 neutrons (N-14). So that's possible. Alternatively, C2 would have 12 protons and 12 neutrons if each C is C-12. But C-12 is the most common isotope. However, the question mentions that X incorporates a heavier isotope of one of its constituent elements. So maybe the element in question is Chlorine, which has two main isotopes, Cl-35 and Cl-37. If X is a compound that includes Cl-37, then perhaps when it reacts with Y, it produces a gas that's heavier, but the question says the molecule of W has same number of protons and neutrons. Wait, but Chlorine-35 has 17 protons and 18 neutrons, so not equal. Chlorine-37 has 17 protons and 20 neutrons. So neither of them would have equal protons and neutrons. So maybe the element is Chlorine, but then the gas W can't be Chlorine-based. Alternatively, maybe the element is Nitrogen. Nitrogen-14 has 7 protons and 7 neutrons. So N2 would fit. But then, if X is a compound with Nitrogen, which is common in organic chemistry. Wait, the question also mentions that the product of the reaction of a certain keto acid with X contains 2 atoms of oxygen. So maybe X is a compound that reacts with a keto acid to form something with two oxygens. Let's think. Keto acids are like RCOOR', which have two oxygen atoms. Wait, no, a keto acid is an acid with a ketone group, like RCOOH. Wait, RCOOH has two oxygen atoms in the carbonyl and the -OH group. So if X reacts with a keto acid (RCOOH) to form a product with two oxygens, perhaps the product is a ketone (RCOR') which has two oxygen atoms? Wait, no. Wait, RCOOH has two oxygen atoms. If X reacts with RCOOH and the product has two oxygen atoms, maybe X doesn't change the oxygen count. Alternatively, maybe X is a reducing agent that reduces the acid to a ketone. For example, using a reducing agent like NaBH4, which would reduce RCOOH to RCH2OH. Wait, but that would add more oxygen. Hmm. Alternatively, maybe X is a dehydrating agent. Wait, but the product has two oxygen atoms. Let's think of a reaction where a keto acid (RCOOH) reacts with X to form something with two oxygens. For example, if X is a base, maybe it removes water, but that would reduce the oxygens. Wait, RCOOH plus X gives a compound with two oxygen atoms. Let me think of possible reactions. If X is a ketone, but that's probably not. Alternatively, if X is a Grignard reagent, but that's used in organometallic reactions. Wait, maybe X is something that removes an oxygen. For example, dehydration. If X is concentrated sulfuric acid, it can act as a dehydrating agent. Then, RCOOH could dehydrate to form an anhydride or a ketone. Wait, but anhydrides have more oxygens. Hmm. Alternatively, maybe X is a catalyst for dehydration. Let's say RCOOH (with two oxygens) reacts with X (which could be a catalyst) to form an ester or something else. Wait, but the product has two oxygens. Let's consider that maybe X is a compound that doesn't add or remove oxygen. Alternatively, perhaps X is a compound that when reacted with a keto acid, the product is the same keto acid, but that seems unlikely. Alternatively, maybe X is a compound with a functional group that when reacting with the keto acid, the oxygen count remains the same. Maybe X is a diol or something. Wait, this seems a bit confusing. Let's move on to the next clue. The precipitate G, when heated, releases B. The melting point of B is very close to 277 K. Let's think about what element has a melting point near 277 K. Let's recall some melting points. Water is 273 K. So 277 K is just above that. Maybe something like ammonia? Wait, ammonia's melting point is -78 K. No. Maybe something like ice? Ice's melting point is 273 K. So 277 K is a bit higher. Wait, could it be a allotrope of carbon? For example, graphite has a melting point around 3500 K. No. Diamond is even higher. Maybe something else. Wait, maybe the element is something like silicon? No, silicon's melting point is around 1700 K. Hmm. Alternatively, maybe it's the element that forms a compound with a certain structure when heated. Let's think. If G is a precipitate, maybe it's a hydroxide. When heated, it loses water. For example, if G is a metal hydroxide, heating it would release the metal oxide. For example, Fe(OH)3 when heated might lose water to form Fe2O3. But the melting point of Fe2O3 is around 2000 K, which is way higher than 277 K. Alternatively, maybe it's a different kind of compound. Wait, 277 K is just above the melting point of ice. Maybe the precipitate G is a chloride that upon heating forms something. For example, if G is NaCl, but NaCl's melting point is around 800 K. No. Alternatively, maybe G is NH4Cl, which has a melting point around 140 K. Still too low. Wait, let's think of a metal that forms a hydroxide with a melting point around 277 K. Wait, 277 K is 4 degrees above 273 K, which is the melting point of water. So maybe the precipitate is something like a water ice? But that's just water. Alternatively, maybe it's a compound like ammonium chloride. Wait, NH4Cl's melting point is around 143 K. Still too low. Alternatively, maybe the precipitate is something like sodium hydroxide. NaOH's melting point is around 800 K. No. Wait, maybe the precipitate is something that upon heating decomposes into a solid with a lower melting point. For example, maybe G is a carbonate. For instance, Na2CO3 has a melting point around 1330 K. If it's heated, it might decompose into Na2O and CO2. But that's still too high. Hmm. Alternatively, maybe G is a metal oxide. For example, if G is FeO, but FeO's melting point is around 2900 K. No. Wait, maybe the precipitate is something like a nitrile? Wait, nitriles have higher melting points. Alternatively, maybe it's a different type of compound. Let's think of the melting point again. 277 K is 4 K above the melting point of water. Maybe it's a di-hydrate or something. Wait, perhaps the precipitate is a form of ice? But ice's melting point is 273 K. So if it's just slightly above that, maybe it's a supercooled liquid, but when heated, it would just melt. But the question says when heated, it releases B. So maybe G is a solid that upon heating loses water, forming B. If B has a melting point near 277 K, perhaps B is water? But water's melting point is 273 K. So if B is water, then when G is heated, it melts, releasing water. But that seems a bit circular. Wait, or maybe G is a hydrate, like a salt with water incorporated. Heating it would release water (H2O) as B. So if B is H2O, then the melting point of B (water) is 273 K, which is close to 277 K. That could fit. So if G is a hydrate, heating it would release water. So the precipitate G is a hydrate, and when heated, it loses water to become an anhydrous salt. But the melting point of B (water) is 273 K, which is close to 277 K. So that could be it. So G is a hydrate, and B is H2O. Therefore, when G is heated, it releases H2O. But then, the precipitate is the hydrated form, and upon heating, it loses water. So that fits. Therefore, B is H2O. But the melting point of water is 273 K, which is very close to 277 K. So that's probably it. So B is H2O. 

Now, moving on to the next clue: The product of the reaction of a certain keto acid with the substance X contains 2 atoms of oxygen. Let's think. If X is a compound that reacts with a keto acid (RCOOH) to produce a product with 2 oxygen atoms. Let's consider the reaction. Suppose X is a reducing agent. For example, a ketone doesn't have oxygen in the product. Wait, but the product has 2 atoms of oxygen. Let's think of a reaction where the product is a compound with two oxygen atoms. For example, if the keto acid (RCOOH) reacts with X (maybe a Grignard reagent) to form RCOOR', but that would have two oxygens. Wait, but Grignard reagents are RMgX. When they react with a carboxylic acid (RCOOH), they form an ester: RCOOR' and MgX byproducts. So the product would have two oxygens (from the ester group). So if X is a Grignard reagent, then the product would have two oxygens. But the question says that X incorporates a heavier isotope of one of its constituent elements. If X is a Grignard reagent (R-Mg-X), then Mg is a group 2 element. But the question states that X incorporates a heavier isotope of one of its constituent elements. So if X is Mg, then a heavier isotope would be Mg-25 (is that possible? Wait, magnesium has isotopes up to Mg-25. Let me check. The common isotopes of Mg are Mg-24 (about 79%), Mg-25 (~10%), and Mg-26 (~11%). So Mg-25 is a heavier isotope than Mg-24. If X is a Grignard reagent, then Mg is part of it. So if X is Mg, then the heavier isotope would be Mg-25. But the question says that X incorporates a heavier isotope of one of its constituent elements. So if X is Mg, then Mg-25 is heavier than Mg-24. So that fits. But wait, the Grignard reagent is R-Mg-X, but X here is likely a halogen like Cl. Wait, but the question says "a certain keto acid", which is RCOOH. So if X is a Grignard reagent (R-Mg-Cl, perhaps), then reacting with RCOOH would form RCOOR' and MgCl byproducts. But in that case, the product would have two oxygen atoms (from the ester group). So that fits. So if X is a Grignard reagent (like R-Mg-Cl), then the product would have two oxygens. But then, the Grignard reagent is made from Mg and Cl. So Mg would have a heavier isotope, Mg-25. So the cumulative atomic masses would include Mg-25. But wait, the question says "the cumulative atomic masses of the lightest and heaviest elements present within Substance X, considering that if multiple instances of an element exist, the masses of all the heavier and lighter isotopes must be summed." So if X is a Grignard reagent, which contains Mg, then the elements are Mg, R (carbon, hydrogen, etc.), and X (halogen, likely Cl). So the elements in X would be Mg, Cl, and the elements in R. But the question is asking for the lightest and heaviest elements in X. The lightest element in X would be the lightest element present in X. If X is a Grignard reagent, then R could be an alkyl group (like CH3), and X is Cl. So the elements would include C, H, Mg, Cl. The lightest element would be H (if present), then C, then Mg, then Cl. Wait, but H is lighter than C. So H is the lightest. The heaviest element would be Cl. But the question says "lightest and heaviest elements present within Substance X". So for X being a Grignard reagent (R-Mg-X), the elements would be Mg, X (Cl), and the elements of R (C, H). So the lightest element is H, the heaviest is Cl. But wait, the question says "considering that if multiple instances of an element exist, the masses of all the heavier and lighter isotopes must be summed." So for H, which is the lightest element, we need to sum all its isotopes present in X. Wait, but in MgCl2, for example, Mg is Mg-24 or Mg-25 or Mg-26. If X is Mg-25, then that's the heavier isotope. But in the Grignard reagent, MgCl would have Mg and Cl. So if X is the Grignard reagent, Mg is the element with the heavier isotope. So the elements in X would be Mg, Cl, C, H. So the lightest element is H. But H has isotopes: protium (H-1), which is the only stable isotope. So the cumulative mass for H is just 1.008. The heaviest element is Cl. Chlorine has two main isotopes: Cl-35 (about 75%) and Cl-37 (about 25%). So the average atomic mass is (34.969 + 36.966)/2 ≈ 35.967. But wait, the question says "the cumulative atomic masses of the lightest and heaviest elements present within Substance X". So for H, it's just 1.008. For Cl, it's the average atomic mass. But the question says "considering that if multiple instances of an element exist, the masses of all the heavier and lighter isotopes must be summed." So for Cl, since there are two isotopes, do we sum their masses? Let me think. If Cl is present in X, and X has Cl-35 and Cl-37, then the total mass contribution from Cl would be the sum of their masses. But wait, the question says "the cumulative atomic masses of the lightest and heaviest elements present within Substance X". So for Cl, the cumulative mass would be the sum of all its isotopes present. Wait, but in a molecule, the isotopes are present in a certain ratio. So for Cl, which has two isotopes, the average atomic mass is 35.5. But if the question is asking for the sum of all isotopes, then it would be (34.969 + 36.966) ≈ 71.935. But that's not how atomic masses are calculated. Atomic masses are weighted averages. So the question is a bit confusing. Let me re-read the instruction. It says: "the cumulative atomic masses of the lightest and heaviest elements present within Substance X, considering that if multiple instances of an element exist, the masses of all the heavier and lighter isotopes must be summed." So for each element present, if it has multiple isotopes, sum their masses. So for Cl, which has two isotopes, the total mass contribution would be 34.969 + 36.966 = 71.935. For Mg, which has isotopes Mg-24 (95%), Mg-25 (1%), Mg-26 (4%), the total mass contribution would be 24 + 25 + 26 = 75. Wait, no. Wait, the question says "considering that if multiple instances of an element exist, the masses of all the heavier and lighter isotopes must be summed." So for Mg, which has three isotopes, the cumulative mass would be 24 + 25 + 26 = 75. For Cl, 34 + 35 + 37? Wait, no. Wait, chlorine has isotopes at 35 and 37. So the cumulative mass would be 35 + 37 = 72. For H, only protium, so 1. For C, carbon has isotopes 12, 13, 14, etc. But if X contains carbon, then the cumulative mass would be sum of all its isotopes. But if X is a Grignard reagent, then the R group could be, say, CH3, which contains C and H. So the elements in X would be C, H, Mg, Cl. So the lightest element is H (1), the heaviest is Cl (35.5 if considering the average, but according to the question's instruction, we need to sum all isotopes). Chlorine's isotopes are 35 and 37. So summing them gives 35 + 37 = 72. So the cumulative atomic masses would be 1 (H) + 72 (Cl) = 73. But looking at the answer choices, the options are 25, 29, 31, 35. So 73 isn't an option. Therefore, this line of thinking might be incorrect. Alternatively, perhaps X is not a Grignard reagent. Let's think again.

Alternative approach: The precipitate G is a hydrate that when heated releases water (B, H2O). The product of the reaction of a keto acid with X has 2 oxygen atoms. Let's think of the reaction where a keto acid (RCOOH) reacts with X to form a product with 2 oxygens. For example, if X is a reducing agent like NH3, but that's not incorporating a heavier isotope. Alternatively, maybe X is something with a heavier isotope, like Cl-37. Wait, but the question says that X incorporates a heavier isotope of one of its constituent elements. So if X contains Cl-37 instead of Cl-35, then the heavier isotope is Cl-37. Let's think. If X is Cl, then the lighter element would be H, the heaviest would be Cl. But Cl's atomic mass is around 35.5. So if we sum all its isotopes (35 and 37), 35 + 37 = 72. But again, the options don't have 72. Alternatively, perhaps X is another element. Let's think of the precipitate G. If G is a hydrate, heating it releases H2O. So G could be something like CuSO4·5H2O. Then heating it would release H2O, but the problem is the melting point of B would be that of H2O. But the melting point of H2O is 273 K, close to 277 K. So that fits. So if X is a compound that when reacted with a keto acid produces a product with 2 oxygens. Let's say the product is an ester, which has two oxygens. For example, if X is a Grignard reagent (RMgX), reacting with RCOOH gives RCOOR' and MgX byproducts. The product RCOOR' has two oxygens. So the product has 2 oxygens. So if X is a Grignard reagent, then the elements in X are Mg, R (which includes C and H), and X (which is Cl). So the elements in X would be C, H, Mg, Cl. The lightest element is H (1), the heaviest is Cl (35.5). But according to the instruction, we need to sum the masses of all isotopes for Cl. Chlorine has two isotopes: 35 and 37. So their sum is 35 + 37 = 72. Then H's mass is 1. So total cumulative mass is 72 + 1 = 73. But again, the options don't have 73. So this can't be right. Maybe X is a different compound.

Alternative approach: Let's consider that X incorporates a heavier isotope of one of its elements. So X is a compound containing an element with an isotope heavier than its most common one. For example, Carbon has C-12 as the most common, but C-14 is a heavier isotope. So if X contains Carbon, then the heavier isotope would be C-14. But then, the elements in X would be C, plus whatever else. But the question is about the lightest and heaviest elements. The lightest would be H, the heaviest would be C. But H is lighter than C. Wait, but if X contains Carbon, then the elements would be C, H, and whatever else. So the lightest element in X would be H, the heaviest would be C. But if X is a compound with Carbon, then the cumulative mass would be H + C. H's isotopes sum to 1.008 (protium), C has isotopes C-12 (98.9%), C-13 (1.1%), C-14 (trace). So summing all isotopes: 12 + 13 + 14 = 39. So total cumulative mass would be 1 + 39 = 40. But 40 isn't an option. So this approach might not be correct.

Alternatively, maybe X is a compound with Nitrogen. Nitrogen has N-14 (99.6%) and N-15 (0.4%). If X contains N-15, then the heavier isotope is N-15. Then the elements in X would be N, H, and whatever else. The lightest element is H, the heaviest is N. H's mass is 1, N's isotopes sum to 14 + 15 = 29. So total cumulative mass is 1 + 29 = 30. 30 is one of the options (C). But let's check if this fits with the other clues.

If X is a compound containing N-15, then the reaction with a keto acid (RCOOH) would produce a product with 2 oxygens. For example, if X is NH3 (but NH3 doesn't have a heavier isotope). Wait, but if X is a compound like R-NH2 (amine), but that doesn't have a heavier isotope. Alternatively, if X is a nitro compound. Wait, maybe X is a nitride. But this is getting complicated. Let's see. If X is a compound containing N-15, then when it reacts with a keto acid, the product has 2 oxygens. For example, if X is a reducing agent like NaBH4, but that's not relevant. Alternatively, if X is a nitride, but again, not sure.

Alternatively, let's think of the precipitate G. If G is a hydrate that releases water upon heating, then when heated, G becomes anhydrous. The melting point of G is near 277 K. If G is a hydrate of MgSO4, then heating it would release water. But the melting point of MgSO4·nH2O varies with n. For example, MgSO4·7H2O has a melting point around 273 K. But the question says G, when heated, releases B (H2O), and the melting point of B is near 277 K. Wait, but B is H2O, which has a melting point of 273 K. So that fits. Therefore, G is MgSO4·nH2O. Heating it would release H2O, and the anhydrous MgSO4 would have a higher melting point. But the problem states that the melting point of B is close to 277 K, which is H2O's melting point. So that fits. Then, the elements in X would be Mg, S, O. The lightest element would be O (wait, no, O is 16, but H is lighter). Wait, Mg is 12, S is 32, O is 16. So the elements in X would be Mg, S, O. The lightest element is O (16), and the heaviest is S (32). Wait, but O is lighter than S. Wait, S is 32, O is 16. So the heaviest element is S. The lightest element is O (16). The cumulative atomic masses would be O's isotopes. Oxygen has three main isotopes: O-16 (about 99.76%), O-17 (0.2%), O-18 (0.036%). So summing all isotopes: 16 + 17 + 18 = 51. The heaviest element's isotopes: S has isotopes like S-32 (94.96%), S-33 (4.29%), S-34 (0.75%). Summing: 32 + 33 + 34 = 99. So the total cumulative mass would be 51 (O) + 99 (S) = 150. But that's way higher than the answer choices. So this can't be right. Therefore, this approach is incorrect.

Alternative approach: Let's think of X as a compound containing Cl-37. So the heavier isotope is Cl-37. Then, the elements in X would be Cl, plus whatever else. For example, if X is Cl in a compound like HCl. But HCl contains H and Cl. The lightest element is H, the heaviest is Cl. Summing isotopes: H's is 1, Cl's isotopes are 35 and 37. Summing 35 + 37 = 72. So total 1 + 72 = 73. Again, not matching the options. 

Wait, maybe X is a compound containing Carbon and Chlorine. So the elements would be C, H, Cl. The lightest is H (1), heaviest is Cl (35.5). Summing isotopes: H's 1, Cl's 35 + 37 = 72. Total 73. Still not matching. 

Another angle: The product of the reaction with the keto acid has 2 oxygen atoms. If the product is a molecule with two oxygen atoms, like O2. But O2 is a diatomic molecule, which would have two oxygen atoms. But O2's molar mass is 32 g/mol. But the question says the product contains 2 atoms of oxygen. So maybe the product is O2. But how would that happen? If the keto acid (RCOOH) reacts with O2 to form something else? That seems unlikely. Alternatively, if X is O2 itself, but that's unlikely since the problem states that X incorporates a heavier isotope. O doesn't have a heavier isotope. 

Alternatively, if the product is H2O2 (oxygen in diatomic form), which has two oxygen atoms. Then, the product would be H2O2. But H2O2 has 2 O atoms. So that fits. So if the reaction between X and a keto acid produces H2O2, then X would need to provide the oxygen. But H2O2 is O-based. So if the keto acid is RCOOH, and X is another oxygen-containing compound. But this seems a stretch. 

Alternatively, maybe the product is O3 (ozone), but that's less common. 

Alternatively, think of the product as a molecule with two oxygen atoms, such as O2 (unlikely), or O=O (unlikely). Alternatively, perhaps the product is a molecule with two oxygen atoms from the keto acid. For example, if the keto acid is RCOOH and X is something that when reacted, the product has two oxygens. For example, X could be a molecule that upon reaction with RCOOH forms a molecule with two oxygen atoms. For instance, if X is a Grignard reagent (R'MgX), then reacting with RCOOH would form RCOOR', which has two oxygens. So that fits. Then, if X is a Grignard reagent, then X contains Mg and X (halogen, likely Cl). So the elements in X would be Mg, Cl, and the elements of R (C, H). So the lightest element is H (1), the heaviest is Cl (35.5). Summing isotopes: H's 1, Cl's 35 + 37 = 72. Total 73. Again, not matching. 

Wait, perhaps the product of the reaction is C=O (carbon monoxide), which has one oxygen. But the question says two atoms. So that's not it. Alternatively, maybe the product is a molecule with two oxygen atoms, like O=O (oxygen molecule), but that's unlikely. 

Alternatively, perhaps the product is a simple diatomic molecule with two oxygen atoms. But how would that form from a keto acid and X? Maybe X is O2, but O2 doesn't have a heavier isotope. 

This is getting complicated. Let's try to approach the problem again step by step.

1. Substance X incorporates a heavier isotope of one of its elements. So X has at least one element with an isotope heavier than its most common one. 

2. Reaction with a keto acid (RCOOH) produces a product with 2 oxygen atoms. 

3. Heating precipitate G (a hydrate) releases B (H2O). The melting point of B is near 277 K (close to 273 K, H2O's melting point). So B is H2O. 

4. When X reacts with the keto acid, the product has 2 oxygens. Let's assume the product is an ester (RCOOR'), which has two oxygens. So the reaction would be Grignard reagent (R'MgX) + RCOOH → RCOOR' + MgX byproducts. So X is the Grignard reagent's X (likely Cl). Therefore, X contains Mg and Cl. 

5. The elements in X are Mg, Cl, and the elements of R (C, H). So the lightest element is H, the heaviest is Cl. 

6. Now, sum the isotopes for H and Cl. H has only H-1, so 1. Cl has isotopes 35 and 37, summing to 35 + 37 = 72. Total cumulative mass is 1 + 72 = 73. But the options don't have 73. So this is a problem. 

Alternatively, perhaps the answer is not 73. Maybe the question is referring to the average atomic mass, not the sum. If the question is asking for the average, then for Cl, the average atomic mass is (34.969 + 35.453)/2 ≈ 35.21. For H, 1.008. So total would be 1.008 + 35.21 ≈ 36.22. But the options are 25, 29, 31, 35. Still not matching. 

Alternatively, maybe X is not a Grignard reagent but something else. Let's think of another possibility. If X is a compound containing sulfur. Sulfur has S-32 (95.92%), S-33 (0.74%), S-34 (3.15%), S-35 (0.11%), S-36 (0.16%). The heavier isotopes are S-32, but S-32 is the most common. Wait, but the question says incorporates a heavier isotope. So if X contains S-34 or S-35, then those are heavier isotopes. The lightest element in X would be H, the heaviest would be S. Summing isotopes: H's 1. For S, summing all isotopes: 32 + 33 + 34 + 35 + 36 = 170. So total 1 + 170 = 171. Not matching. 

Alternative approach: Maybe the product of the reaction is a molecule with two oxygen atoms. For example, if the product is O2, which is diatomic. Then X would need to provide O atoms. But O doesn't have a heavier isotope. Alternatively, if the product is O3 (ozone), but that's less common. 

Alternatively, think of the product as a molecule with two oxygen atoms from the keto acid. For example, if the keto acid is RCOOH and X is a compound with O, perhaps a hydroxide. But I'm not sure. 

Wait, maybe the product is a molecule with two oxygen atoms from X. For example, if X is a compound with two oxygen atoms, like H2O2. But then the reaction would need to form H2O2 from X and RCOOH. But that's speculative. 

Alternatively, let's think of the reaction between X and RCOOH. If X is a compound that reacts with RCOOH to form a product with two oxygen atoms. For example, if X is a diol (R-OH), but that might not fit. 

Alternatively, maybe X is a compound that has a carbonyl group. Wait, but the question says X incorporates a heavier isotope of one of its elements. If X is a carbonyl compound, but that's unlikely. 

Wait, perhaps the reaction produces a compound with two oxygen atoms, like a molecule of O2. But that seems unlikely. 

Another angle: The product of the reaction has two oxygen atoms, which could be part of an ester group (like RCOOR') which has two oxygens. So if X is a Grignard reagent (R'MgX), then the product would be RCOOR'. So X contains Mg and X (halogen). So if X is Cl, then the elements are Mg, Cl, C, H. The lightest element is H, the heaviest is Cl. Summing isotopes: H's 1, Cl's 35 + 37 = 72. Total 73. Again, not matching. 

Wait, perhaps the question is referring to the average atomic masses, not the sum. So for Cl, average atomic mass is ~35.5. For H, 1. So total 36.5, which is close to 35.5. But the options are 25,29,31,35. Still not matching. 

Alternatively, if X is a compound containing Carbon and Chlorine. For example, CH2Cl. The elements are C, H, Cl. Lightest is H (1), heaviest is Cl (35.5). Summing their atomic masses: 1 + 35.5 = 36.5. Again, not matching. 

Wait, the options given are 25,29,31,35. The only one close to 35 is option D. Maybe the cumulative atomic mass is 35. So if X is a compound where the lightest element's atomic mass plus the heaviest's atomic mass equals 35. Let's see. For example, if X is a compound containing Carbon (12) and Chlorine (35). 12 + 35 = 47. Not 35. Alternatively, if X is a compound containing Hydrogen (1) and Chlorine (35). 1 + 35 = 36. Not 35. If X is a compound containing Hydrogen (1) and Sulfur (32). 1 + 32 = 33. Close to 35. But not exactly. Alternatively, if X is a compound containing Nitrogen (14) and Chlorine (35). 14 + 35 = 49. No. Alternatively, maybe the elements are Carbon (12) and Oxygen (16). 12 + 16 = 28. Close to 31. But not matching. 

Alternatively, if the elements are Carbon (12) and Hydrogen (1). 12 + 1 = 13. Not matching. 

Alternatively, if X is a compound containing Carbon (12) and Chlorine (35). 12 + 35 = 47. Not matching. 

Alternatively, maybe the elements are Chlorine (35) and something else, but that would exceed 35. 

Wait, maybe the elements are Hydrogen (1) and Carbon (12). 1 + 12 = 13. Not matching. 

Alternatively, maybe the elements are Chlorine (35) and something lighter, like Hydrogen (1). But 35 + 1 = 36. Still not 35. 

Alternatively, maybe the elements are Chlorine (35) and another element with atomic mass 0. Not possible. 

This is getting frustrating. Let me think again. Maybe the answer is 29. How? If the lightest element's atomic mass is 1 (H) and the heaviest is 28 (Ni?), but Ni's isotopes would sum to higher. Alternatively, if X is a compound containing Nitrogen. Nitrogen has N-14 (99.6%) and N-15 (0.4%). The sum of isotopes would be 14 + 15 = 29. If the lightest element is H (1), then total would be 1 + 29 = 30. Still not matching. 

Alternatively, if X is a compound containing Nitrogen (14) and Chlorine (35). 14 + 35 = 49. No. 

Wait, perhaps the elements are Carbon (12) and Chlorine (35). 12 + 35 = 47. No. 

Alternatively, if X is a compound containing Carbon (12) and Hydrogen (1). 12 + 1 = 13. No. 

Alternatively, maybe the elements are Chlorine (35) and another element with atomic mass 2. But there's no element with atomic mass 2. 

Wait, maybe the elements are Carbon (12) and Chlorine (35). But that sums to 47. 

Alternatively, maybe the elements are Hydrogen (1) and Chlorine (35), sum 36. Still not 35. 

Alternatively, maybe the elements are Chlorine (35) and another element with atomic mass 0. Not possible. 

Hmm. This is really tricky. Let's try to think of the options. The options are 25, 29, 31, 35. Let's see. If the cumulative atomic masses are 35, then perhaps the lightest element's atomic mass plus the heaviest's atomic mass equals 35. For example, Carbon (12) and Chlorine (35) = 47. No. Nitrogen (14) and Chlorine (35) = 49. Hydrogen (1) and Chlorine (35) = 36. Not matching. 

Wait, maybe the elements are Chlorine (35) and another element with atomic mass 0. Not possible. Alternatively, maybe X is a compound containing Chlorine (35) and Hydrogen (1), but then the sum is 36. 

Alternatively, maybe the elements are Chlorine (35) and another element with atomic mass 0. Wait, that's not possible. 

Alternatively, maybe the elements are Chlorine (35) and another element with atomic mass 2. Not possible. 

Alternatively, maybe the elements are Chlorine (35) and another element with atomic mass 4. Not possible. 

Alternatively, maybe the elements are Chlorine (35) and another element with atomic mass 10. Not possible. 

Hmm. This is really confusing. Let me think of the answer choices again. The options are 25, 29, 31, 35. Let's think of which one could be the sum of two elements' atomic masses. For example, 25 could be 12 (C) + 13 (Al). 29 could be 14 (N) +15 (O). 31 could be 16 (S) +15 (O). 35 could be 17 (Cl) + 18 (Ar). But Ar is noble gas and unlikely. Alternatively, 35 could be 32 (S) +3 (Li). 

Wait, if the elements are S (32) and Li (7), sum is 32 +7=39. Not 35. 

Alternatively, if the elements are Cl (35) and something else. But 35 + something would exceed 35. 

Alternatively, maybe the elements are Cl (35) and another element with atomic mass 0. Not possible. 

Alternatively, maybe the elements are C (12) and N (14). 12 +14=26. Not matching. 

Alternatively, maybe the elements are C (12) and O (16). 12 +16=28. Not matching. 

Alternatively, maybe the elements are N (14) and O (16). 14 +16=30. Close to 31. But not matching. 

Alternatively, maybe the elements are N (14) and Cl (35). 14 +35=49. No. 

Alternatively, maybe the elements are C (12) and S (32). 12 +32=44. No. 

Alternatively, maybe the elements are H (1) and Cl (35). 1 +35=36. Close to 35. 

Alternatively, maybe the elements are H (1) and another element with atomic mass 34. But 34 is Se (selenium). But then sum would be 1 +34=35. That's option D. 

So if X contains hydrogen and selenium. But why would X incorporate a heavier isotope? Selenium's most common isotope is Se-78 (97.7%), Se-79 (2.3%). So the heavier isotope is Se-79 (mass 79). So the elements in X would be H (1) and Se (34). The lightest element is H (1), the heaviest is Se (34). Sum of their atomic masses: 1 +34=35. Which matches option D. 

But does this fit with the other clues? Let's check. 

If X is selenium hydride (HSe), but selenium typically doesn't form hydrides. Alternatively, perhaps X is a compound containing hydrogen and selenium, like H2Se. The elements in X would be H, Se. The lightest element is H (1), the heaviest is Se (34). Sum is 35. So cumulative atomic masses would be 1 +34=35, which is option D. 

Now, check the other clues. The product of the reaction with the keto acid has 2 oxygen atoms. If X is H2Se, reacting with a keto acid (RCOOH) would form an ester (RCOOR'), which has two oxygens. So that fits. 

Then, the precipitate G is a hydrate that releases water when heated. If H2Se reacts with a keto acid, the product is an ester, which doesn't release water. But the question states that G is a hydrate that releases B (H2O) upon heating. So perhaps X is part of the hydrate. Wait, maybe the hydrate is related to X. If X is a compound that forms a hydrate when reacted with a base. For example, if X is H2Se and reacts with a base to form H2Se·nH2O. Heating it would release H2O. But does H2Se form hydrates? I'm not sure. 

Alternatively, perhaps the precipitate G is the hydrate of X. For example, if X is a hydroxide, but in this case, X is H2Se. So maybe H2Se·nH2O is the hydrate. Heating it would release H2O, which is B. So that fits. Then, the melting point of B (H2O) is 273 K, close to 277 K. So that fits. 

Therefore, if X is H2Se, then the elements in X are H and Se. The lightest element is H (1), the heaviest is Se (34). Sum is 1 +34=35. Which is option D. 

So this seems to fit all the clues. 

Therefore, the correct answer is D.35.
</think>